{
  "Acentric_Factor": 0.189,
  "BO_BSW": 0.0,
  "BO_GOR": 0.0,
  "BO_OilVisc1": 0.0,
  "BO_OilVisc2": 0.0,
  "BO_OilViscTemp1": 0.0,
  "BO_OilViscTemp2": 0.0,
  "BO_PNA_A": 0.0,
  "BO_PNA_N": 0.0,
  "BO_PNA_P": 0.0,
  "BO_SGG": 0.0,
  "BO_SGO": 0.0,
  "CAS_Number": "",
  "Chao_Seader_Acentricity": 0.1841,
  "Chao_Seader_Liquid_Molar_Volume": 42.1382,
  "Chao_Seader_Solubility_Parameter": 0.004493409798,
  "Charge": 0,
  "ChemicalStructure": "",
  "Comments": "",
  "CompCreatorStudyFile": "",
  "COSMODBName": null,
  "Critical_Compressibility": 0.268,
  "Critical_Pressure": 6114000.0,
  "Critical_Temperature": 308.3,
  "Critical_Volume": 0.1122,
  "CurrentDB": "ChemSep",
  "Dipole_Moment": 0.0,
  "Electrolyte_Cp0": 0.0,
  "Electrolyte_DelGF": 0.0,
  "Electrolyte_DelHF": 0.0,
  "EnthalpyOfFusionAtTf": 3.77,
  "Formula": "CH-Ni",
  "HVap_A": 38817000.0,
  "HVap_B": 1.497,
  "HVap_C": -1.0261,
  "HVap_D": 0.037348,
  "HVap_E": -0.024401,
  "HVap_TMAX": 308.7,
  "HVap_TMIN": 192.4,
  "HydrationNumber": 0.0,
  "ID": 401,
  "Ideal_Gas_Heat_Capacity_Const_A": 28271.69,
  "Ideal_Gas_Heat_Capacity_Const_B": -404.2493,
  "Ideal_Gas_Heat_Capacity_Const_C": 11.05572,
  "Ideal_Gas_Heat_Capacity_Const_D": -0.000229636,
  "Ideal_Gas_Heat_Capacity_Const_E": 1.424209E-07,
  "IdealgasCpEquation": "16",
  "IG_Enthalpy_of_Formation_25C": 8764.356338296473,
  "IG_Entropy_of_Formation_25C": 2.2568550914535948,
  "IG_Gibbs_Energy_of_Formation_25C": 8091.4749927795838,
  "InChI": "",
  "Ion_CpAq_a": 0.0,
  "Ion_CpAq_b": 0.0,
  "Ion_CpAq_c": 0.0,
  "IsBlackOil": false,
  "IsCOOLPROPSupported": false,
  "IsFPROPSSupported": false,
  "IsHydratedSalt": false,
  "IsHYPO": 0,
  "IsIon": false,
  "IsModified": false,
  "IsPF": 0,
  "IsSalt": false,
  "Liquid_Density_Const_A": 2.8265,
  "Liquid_Density_Const_B": 0.29316,
  "Liquid_Density_Const_C": 308.3,
  "Liquid_Density_Const_D": 0.31711,
  "Liquid_Density_Const_E": 0.0,
  "Liquid_Density_Tmax": 307.8,
  "Liquid_Density_Tmin": 189.54,
  "Liquid_Heat_Capacity_Const_A": 79227.0,
  "Liquid_Heat_Capacity_Const_B": 3177.2,
  "Liquid_Heat_Capacity_Const_C": -44.249,
  "Liquid_Heat_Capacity_Const_D": 0.23814,
  "Liquid_Heat_Capacity_Const_E": -0.00030171,
  "Liquid_Heat_Capacity_Tmax": 250.0,
  "Liquid_Heat_Capacity_Tmin": 192.4,
  "Liquid_Thermal_Conductivity_Const_A": -0.060328,
  "Liquid_Thermal_Conductivity_Const_B": -110.3,
  "Liquid_Thermal_Conductivity_Const_C": 0.44567,
  "Liquid_Thermal_Conductivity_Const_D": -0.0073832,
  "Liquid_Thermal_Conductivity_Const_E": 2.4581E-06,
  "Liquid_Thermal_Conductivity_Tmax": 250.0,
  "Liquid_Thermal_Conductivity_Tmin": 192.4,
  "Liquid_Viscosity_Const_A": -10.822,
  "Liquid_Viscosity_Const_B": 283.23,
  "Liquid_Viscosity_Const_C": 0.22007,
  "Liquid_Viscosity_Const_D": -9.1126E-06,
  "Liquid_Viscosity_Const_E": 2.0,
  "LiquidDensityEquation": "105",
  "LiquidHeatCapacityEquation": "16",
  "LiquidThermalConductivityEquation": "16",
  "LiquidViscosityEquation": "101",
  "Molar_Weight": 71.712,
  "MolarVolume_k1i": 0.0,
  "MolarVolume_k2i": 0.0,
  "MolarVolume_k3i": 0.0,
  "MolarVolume_v2i": 0.0,
  "MolarVolume_v3i": 0.0,
  "Name": "CH-Ni",
  "NBP": null,
  "NegativeIon": "",
  "NegativeIonStoichCoeff": 0,
  "Normal_Boiling_Point": 188.4,
  "OriginalDB": "ChemSep",
  "PC_SAFT_epsilon_k": 0.0,
  "PC_SAFT_m": 0.0,
  "PC_SAFT_sigma": 0.0,
  "PF_MM": null,
  "PF_SG": null,
  "PF_Tv1": null,
  "PF_Tv2": null,
  "PF_v1": null,
  "PF_v2": null,
  "PF_vA": null,
  "PF_vB": null,
  "PF_Watson_K": null,
  "PositiveIon": "",
  "PositiveIonStoichCoeff": 0,
  "PR_Volume_Translation_Coefficient": 0.0,
  "SMILES": "C#C",
  "Solid_Density_Const_A": 28.036,
  "Solid_Density_Const_B": -1.6913E-08,
  "Solid_Density_Const_C": 0.0,
  "Solid_Density_Const_D": 0.0,
  "Solid_Density_Const_E": 0.0,
  "Solid_Density_Tmax": 197.65,
  "Solid_Density_Tmin": 188.15,
  "Solid_Heat_Capacity_Const_A": 36900.0,
  "Solid_Heat_Capacity_Const_B": 0.0,
  "Solid_Heat_Capacity_Const_C": 0.0,
  "Solid_Heat_Capacity_Const_D": 0.0,
  "Solid_Heat_Capacity_Const_E": 0.0,
  "Solid_Heat_Capacity_Tmax": 0.0,
  "Solid_Heat_Capacity_Tmin": 174.0,
  "SolidDensityAtTs": 0.0,
  "SolidDensityEquation": "2",
  "SolidHeatCapacityEquation": "1",
  "SolidTs": 0.0,
  "SRK_Volume_Translation_Coefficient": 0.0,
  "StandardStateMolarVolume": 0.0,
  "StoichSum": 0,
  "Surface_Tension_Const_A": -0.0058288,
  "Surface_Tension_Const_B": 469.57,
  "Surface_Tension_Const_C": -10.144,
  "Surface_Tension_Const_D": 0.036848,
  "Surface_Tension_Const_E": -8.3224E-05,
  "Surface_Tension_Tmax": 301.71,
  "Surface_Tension_Tmin": 183.15,
  "SurfaceTensionEquation": "16",
  "TemperatureOfFusion": 192.4,
  "UNIQUAC_Q": 1.39,
  "UNIQUAC_R": 1.52,
  "Vapor_Pressure_Constant_A": 82.22155,
  "Vapor_Pressure_Constant_B": -3603.253,
  "Vapor_Pressure_Constant_C": -10.0271,
  "Vapor_Pressure_Constant_D": 2.69397E-05,
  "Vapor_Pressure_Constant_E": 2.0,
  "Vapor_Pressure_TMAX": 308.33,
  "Vapor_Pressure_TMIN": 187.75,
  "Vapor_Thermal_Conductivity_Const_A": 7.8096E-05,
  "Vapor_Thermal_Conductivity_Const_B": 1.0286,
  "Vapor_Thermal_Conductivity_Const_C": -36.515,
  "Vapor_Thermal_Conductivity_Const_D": 33144.0,
  "Vapor_Thermal_Conductivity_Const_E": 0.0,
  "Vapor_Thermal_Conductivity_Tmax": 1000.0,
  "Vapor_Thermal_Conductivity_Tmin": 192.4,
  "Vapor_Viscosity_Const_A": 1.0997E-06,
  "Vapor_Viscosity_Const_B": 0.50414,
  "Vapor_Viscosity_Const_C": 259.72,
  "Vapor_Viscosity_Const_D": 2787.3,
  "Vapor_Viscosity_Const_E": 0.0,
  "Vapor_Viscosity_Tmax": 600.0,
  "Vapor_Viscosity_Tmin": 192.4,
  "VaporizationEnthalpyEquation": "106",
  "VaporPressureEquation": "101",
  "VaporThermalConductivityEquation": "102",
  "VaporViscosityEquation": "102",
  "Z_Rackett": 0.2712,
  "Elements": {
    "C": 2.0,
    "H": 2.0
  },
  "MODFACGroups": {
    "3": 2
  },
  "NISTMODFACGroups": {
    "3": 2
  },
  "UNIFACGroups": {
    "3": 2
  },
  "FullerDiffusionVolume": 36.42,
  "LennardJonesDiameter": 4.369994E-10,
  "LennardJonesEnergy": 175.862,
  "Parachor": 0.0157,
  "Tag": "",
  "ExtraProperties": {},
  "COSTALD_SRK_Acentric_Factor": 0.20487,
  "COSTALD_Characteristic_Volume": 0.16741,
  "IsSolid": false,
  "ChemSepFamily": 15
}