{
  "Acentric_Factor": 0.045,
  "BO_BSW": 0.0,
  "BO_GOR": 0.0,
  "BO_OilVisc1": 0.0,
  "BO_OilVisc2": 0.0,
  "BO_OilViscTemp1": 0.0,
  "BO_OilViscTemp2": 0.0,
  "BO_PNA_A": 0.0,
  "BO_PNA_N": 0.0,
  "BO_PNA_P": 0.0,
  "BO_SGG": 0.0,
  "BO_SGO": 0.0,
  "CAS_Number": "630-08-0",
  "Chao_Seader_Acentricity": 0.093,
  "Chao_Seader_Liquid_Molar_Volume": 35.4426,
  "Chao_Seader_Solubility_Parameter": 0.0015291780765599998,
  "Charge": 0,
  "ChemicalStructure": "",
  "Comments": "",
  "CompCreatorStudyFile": "",
  "COSMODBName": null,
  "Critical_Compressibility": 0.292,
  "Critical_Pressure": 3494000.0,
  "Critical_Temperature": 132.85,
  "Critical_Volume": 0.0931,
  "CurrentDB": "ChemSep",
  "Dipole_Moment": 3.74E-31,
  "Electrolyte_Cp0": 0.0,
  "Electrolyte_DelGF": 0.0,
  "Electrolyte_DelHF": 0.0,
  "EnthalpyOfFusionAtTf": 0.84098400000000006,
  "Formula": "CO",
  "HVap_A": 8585000.0,
  "HVap_B": 0.4921,
  "HVap_C": -0.326,
  "HVap_D": 0.2231,
  "HVap_E": 0.0,
  "HVap_TMAX": 132.5,
  "HVap_TMIN": 68.13,
  "HydrationNumber": 0.0,
  "ID": 908,
  "Ideal_Gas_Heat_Capacity_Const_A": 29100.0,
  "Ideal_Gas_Heat_Capacity_Const_B": -1979.753,
  "Ideal_Gas_Heat_Capacity_Const_C": 10.58274,
  "Ideal_Gas_Heat_Capacity_Const_D": -7.90406E-05,
  "Ideal_Gas_Heat_Capacity_Const_E": -1.99685E-07,
  "IdealgasCpEquation": "16",
  "IG_Enthalpy_of_Formation_25C": -3946.0765938000932,
  "IG_Entropy_of_Formation_25C": 3.1875615399872093,
  "IG_Gibbs_Energy_of_Formation_25C": -4896.44806694728,
  "InChI": "",
  "Ion_CpAq_a": 0.0,
  "Ion_CpAq_b": 0.0,
  "Ion_CpAq_c": 0.0,
  "IsBlackOil": false,
  "IsCOOLPROPSupported": true,
  "IsFPROPSSupported": false,
  "IsHydratedSalt": false,
  "IsHYPO": 0,
  "IsIon": false,
  "IsModified": false,
  "IsPF": 0,
  "IsSalt": false,
  "Liquid_Density_Const_A": 2.2423,
  "Liquid_Density_Const_B": 0.2437,
  "Liquid_Density_Const_C": 132.93,
  "Liquid_Density_Const_D": 0.24196,
  "Liquid_Density_Const_E": 0.0,
  "Liquid_Density_Tmax": 132.92,
  "Liquid_Density_Tmin": 68.13,
  "Liquid_Heat_Capacity_Const_A": 63364.0,
  "Liquid_Heat_Capacity_Const_B": -10524.0,
  "Liquid_Heat_Capacity_Const_C": 359.6,
  "Liquid_Heat_Capacity_Const_D": -3.9494,
  "Liquid_Heat_Capacity_Const_E": 0.014624,
  "Liquid_Heat_Capacity_Tmax": 132.0,
  "Liquid_Heat_Capacity_Tmin": 68.09,
  "Liquid_Thermal_Conductivity_Const_A": -0.23621,
  "Liquid_Thermal_Conductivity_Const_B": -3.5251,
  "Liquid_Thermal_Conductivity_Const_C": -0.55788,
  "Liquid_Thermal_Conductivity_Const_D": -0.0039362,
  "Liquid_Thermal_Conductivity_Const_E": -8.2725E-06,
  "Liquid_Thermal_Conductivity_Tmax": 125.0,
  "Liquid_Thermal_Conductivity_Tmin": 65.0,
  "Liquid_Viscosity_Const_A": -82.158,
  "Liquid_Viscosity_Const_B": 1037.8,
  "Liquid_Viscosity_Const_C": 14.229,
  "Liquid_Viscosity_Const_D": -0.00028204,
  "Liquid_Viscosity_Const_E": 2.0,
  "LiquidDensityEquation": "105",
  "LiquidHeatCapacityEquation": "16",
  "LiquidThermalConductivityEquation": "16",
  "LiquidViscosityEquation": "101",
  "Molar_Weight": 28.0101,
  "MolarVolume_k1i": 0.0,
  "MolarVolume_k2i": 0.0,
  "MolarVolume_k3i": 0.0,
  "MolarVolume_v2i": 0.0,
  "MolarVolume_v3i": 0.0,
  "Name": "Carbon monoxide",
  "NBP": null,
  "NegativeIon": "",
  "NegativeIonStoichCoeff": 0,
  "Normal_Boiling_Point": 81.66,
  "OriginalDB": "ChemSep",
  "PC_SAFT_epsilon_k": 0.0,
  "PC_SAFT_m": 0.0,
  "PC_SAFT_sigma": 0.0,
  "PF_MM": null,
  "PF_SG": null,
  "PF_Tv1": null,
  "PF_Tv2": null,
  "PF_v1": null,
  "PF_v2": null,
  "PF_vA": null,
  "PF_vB": null,
  "PF_Watson_K": null,
  "PositiveIon": "",
  "PositiveIonStoichCoeff": 0,
  "PR_Volume_Translation_Coefficient": 0.0,
  "SMILES": "[C+]#[O-]",
  "Solid_Density_Const_A": 38.293,
  "Solid_Density_Const_B": -0.062464,
  "Solid_Density_Const_C": 0.0,
  "Solid_Density_Const_D": 0.0,
  "Solid_Density_Const_E": 0.0,
  "Solid_Density_Tmax": 68.15,
  "Solid_Density_Tmin": 27.26,
  "Solid_Heat_Capacity_Const_A": -1396.0,
  "Solid_Heat_Capacity_Const_B": -235.75,
  "Solid_Heat_Capacity_Const_C": 86.77,
  "Solid_Heat_Capacity_Const_D": -2.1914,
  "Solid_Heat_Capacity_Const_E": 0.018145,
  "Solid_Heat_Capacity_Tmax": 62.0,
  "Solid_Heat_Capacity_Tmin": 11.95,
  "SolidDensityAtTs": 0.0,
  "SolidDensityEquation": "2",
  "SolidHeatCapacityEquation": "100",
  "SolidTs": 0.0,
  "SRK_Volume_Translation_Coefficient": 0.0,
  "StandardStateMolarVolume": 0.0,
  "StoichSum": 0,
  "Surface_Tension_Const_A": -0.0087233,
  "Surface_Tension_Const_B": 5.9843,
  "Surface_Tension_Const_C": -3.6585,
  "Surface_Tension_Const_D": 0.00036163,
  "Surface_Tension_Const_E": -6.7401E-05,
  "Surface_Tension_Tmax": 129.51,
  "Surface_Tension_Tmin": 68.15,
  "SurfaceTensionEquation": "16",
  "TemperatureOfFusion": 68.15,
  "UNIQUAC_Q": 1.112,
  "UNIQUAC_R": 1.0679,
  "Vapor_Pressure_Constant_A": 42.283,
  "Vapor_Pressure_Constant_B": -1035.1,
  "Vapor_Pressure_Constant_C": -4.2012,
  "Vapor_Pressure_Constant_D": 6.2546E-05,
  "Vapor_Pressure_Constant_E": 2.0,
  "Vapor_Pressure_TMAX": 132.92,
  "Vapor_Pressure_TMIN": 64.07,
  "Vapor_Thermal_Conductivity_Const_A": 0.00061581,
  "Vapor_Thermal_Conductivity_Const_B": 0.6828,
  "Vapor_Thermal_Conductivity_Const_C": 61.287,
  "Vapor_Thermal_Conductivity_Const_D": 221.32,
  "Vapor_Thermal_Conductivity_Const_E": 0.0,
  "Vapor_Thermal_Conductivity_Tmax": 1500.0,
  "Vapor_Thermal_Conductivity_Tmin": 70.0,
  "Vapor_Viscosity_Const_A": 1.2713E-06,
  "Vapor_Viscosity_Const_B": 0.51494,
  "Vapor_Viscosity_Const_C": 105.97,
  "Vapor_Viscosity_Const_D": -231.11,
  "Vapor_Viscosity_Const_E": 0.0,
  "Vapor_Viscosity_Tmax": 1273.15,
  "Vapor_Viscosity_Tmin": 68.15,
  "VaporizationEnthalpyEquation": "106",
  "VaporPressureEquation": "101",
  "VaporThermalConductivityEquation": "102",
  "VaporViscosityEquation": "102",
  "Z_Rackett": 0.2918,
  "Elements": {
    "C": 1.0,
    "O": 1.0
  },
  "MODFACGroups": {},
  "NISTMODFACGroups": {},
  "UNIFACGroups": {},
  "FullerDiffusionVolume": 18.0,
  "LennardJonesDiameter": 3.704834E-10,
  "LennardJonesEnergy": 103.1937,
  "Parachor": 0.0111,
  "Tag": "",
  "ExtraProperties": {},
  "COSTALD_SRK_Acentric_Factor": 0.0295,
  "COSTALD_Characteristic_Volume": 0.0921398,
  "IsSolid": false,
  "ChemSepFamily": 24
}