{
  "Acentric_Factor": 0.223621,
  "BO_BSW": 0.0,
  "BO_GOR": 0.0,
  "BO_OilVisc1": 0.0,
  "BO_OilVisc2": 0.0,
  "BO_OilViscTemp1": 0.0,
  "BO_OilViscTemp2": 0.0,
  "BO_PNA_A": 0.0,
  "BO_PNA_N": 0.0,
  "BO_PNA_P": 0.0,
  "BO_SGG": 0.0,
  "BO_SGO": 0.0,
  "CAS_Number": "124-38-9",
  "Chao_Seader_Acentricity": 0.231,
  "Chao_Seader_Liquid_Molar_Volume": 37.2744,
  "Chao_Seader_Solubility_Parameter": 0.0034785053748,
  "Charge": 0,
  "ChemicalStructure": "",
  "Comments": "",
  "CompCreatorStudyFile": "",
  "COSMODBName": null,
  "Critical_Compressibility": 0.274,
  "Critical_Pressure": 7383000.0,
  "Critical_Temperature": 304.21,
  "Critical_Volume": 0.094,
  "CurrentDB": "ChemSep",
  "Dipole_Moment": 0.0,
  "Electrolyte_Cp0": 0.0,
  "Electrolyte_DelGF": 0.0,
  "Electrolyte_DelHF": 0.0,
  "EnthalpyOfFusionAtTf": 9.019,
  "Formula": "OCO",
  "HVap_A": 21092000.0,
  "HVap_B": 0.35366,
  "HVap_C": -0.46134,
  "HVap_D": 0.43554,
  "HVap_E": 0.037671,
  "HVap_TMAX": 304.21,
  "HVap_TMIN": 216.58,
  "HydrationNumber": 0.0,
  "ID": 909,
  "Ideal_Gas_Heat_Capacity_Const_A": 28933.0,
  "Ideal_Gas_Heat_Capacity_Const_B": -494.28,
  "Ideal_Gas_Heat_Capacity_Const_C": 10.658,
  "Ideal_Gas_Heat_Capacity_Const_D": -2.7375E-05,
  "Ideal_Gas_Heat_Capacity_Const_E": 3.3268E-09,
  "IdealgasCpEquation": "16",
  "IG_Enthalpy_of_Formation_25C": -8941.4785444051849,
  "IG_Entropy_of_Formation_25C": 0.065541624736143708,
  "IG_Gibbs_Energy_of_Formation_25C": -8961.0197798202662,
  "InChI": "",
  "Ion_CpAq_a": 0.0,
  "Ion_CpAq_b": 0.0,
  "Ion_CpAq_c": 0.0,
  "IsBlackOil": false,
  "IsCOOLPROPSupported": true,
  "IsFPROPSSupported": false,
  "IsHydratedSalt": false,
  "IsHYPO": 0,
  "IsIon": false,
  "IsModified": false,
  "IsPF": 0,
  "IsSalt": false,
  "Liquid_Density_Const_A": 2.768,
  "Liquid_Density_Const_B": 0.26212,
  "Liquid_Density_Const_C": 304.21,
  "Liquid_Density_Const_D": 0.2908,
  "Liquid_Density_Const_E": 0.0,
  "Liquid_Density_Tmax": 304.21,
  "Liquid_Density_Tmin": 216.58,
  "Liquid_Heat_Capacity_Const_A": 80592.0,
  "Liquid_Heat_Capacity_Const_B": 108.83,
  "Liquid_Heat_Capacity_Const_C": -6.9126,
  "Liquid_Heat_Capacity_Const_D": 0.059647,
  "Liquid_Heat_Capacity_Const_E": 6.9922E-06,
  "Liquid_Heat_Capacity_Tmax": 290.0,
  "Liquid_Heat_Capacity_Tmin": 216.58,
  "Liquid_Thermal_Conductivity_Const_A": -0.24975,
  "Liquid_Thermal_Conductivity_Const_B": -55.106,
  "Liquid_Thermal_Conductivity_Const_C": 0.41735,
  "Liquid_Thermal_Conductivity_Const_D": -0.0051067,
  "Liquid_Thermal_Conductivity_Const_E": 2.0157E-06,
  "Liquid_Thermal_Conductivity_Tmax": 300.0,
  "Liquid_Thermal_Conductivity_Tmin": 216.58,
  "Liquid_Viscosity_Const_A": -7.7022,
  "Liquid_Viscosity_Const_B": -166.34,
  "Liquid_Viscosity_Const_C": 0.38094,
  "Liquid_Viscosity_Const_D": -4.018E-05,
  "Liquid_Viscosity_Const_E": 2.0,
  "LiquidDensityEquation": "105",
  "LiquidHeatCapacityEquation": "16",
  "LiquidThermalConductivityEquation": "16",
  "LiquidViscosityEquation": "101",
  "Molar_Weight": 44.0095,
  "MolarVolume_k1i": 0.0,
  "MolarVolume_k2i": 0.0,
  "MolarVolume_k3i": 0.0,
  "MolarVolume_v2i": 0.0,
  "MolarVolume_v3i": 0.0,
  "Name": "Carbon dioxide",
  "NBP": null,
  "NegativeIon": "",
  "NegativeIonStoichCoeff": 0,
  "Normal_Boiling_Point": 0.0,
  "OriginalDB": "ChemSep",
  "PC_SAFT_epsilon_k": 0.0,
  "PC_SAFT_m": 0.0,
  "PC_SAFT_sigma": 0.0,
  "PF_MM": null,
  "PF_SG": null,
  "PF_Tv1": null,
  "PF_Tv2": null,
  "PF_v1": null,
  "PF_v2": null,
  "PF_vA": null,
  "PF_vB": null,
  "PF_Watson_K": null,
  "PositiveIon": "",
  "PositiveIonStoichCoeff": 0,
  "PR_Volume_Translation_Coefficient": 0.0,
  "SMILES": "O=C=O",
  "Solid_Density_Const_A": 42.04,
  "Solid_Density_Const_B": -0.034421,
  "Solid_Density_Const_C": -0.0002847,
  "Solid_Density_Const_D": 0.0,
  "Solid_Density_Const_E": 0.0,
  "Solid_Density_Tmax": 216.58,
  "Solid_Density_Tmin": 143.1,
  "Solid_Heat_Capacity_Const_A": -18283.0,
  "Solid_Heat_Capacity_Const_B": 1360.3,
  "Solid_Heat_Capacity_Const_C": -12.153,
  "Solid_Heat_Capacity_Const_D": 0.051584,
  "Solid_Heat_Capacity_Const_E": -7.6997E-05,
  "Solid_Heat_Capacity_Tmax": 216.58,
  "Solid_Heat_Capacity_Tmin": 25.0,
  "SolidDensityAtTs": 0.0,
  "SolidDensityEquation": "2",
  "SolidHeatCapacityEquation": "100",
  "SolidTs": 0.0,
  "SRK_Volume_Translation_Coefficient": 0.0,
  "StandardStateMolarVolume": 0.0,
  "StoichSum": 0,
  "Surface_Tension_Const_A": -0.011629,
  "Surface_Tension_Const_B": -183.67,
  "Surface_Tension_Const_C": 0.069773,
  "Surface_Tension_Const_D": -0.012408,
  "Surface_Tension_Const_E": -1.8232E-06,
  "Surface_Tension_Tmax": 304.21,
  "Surface_Tension_Tmin": 216.58,
  "SurfaceTensionEquation": "16",
  "TemperatureOfFusion": 216.58,
  "UNIQUAC_Q": 1.292,
  "UNIQUAC_R": 1.2986,
  "Vapor_Pressure_Constant_A": 95.478,
  "Vapor_Pressure_Constant_B": -4070.0,
  "Vapor_Pressure_Constant_C": -12.07,
  "Vapor_Pressure_Constant_D": 2.9505E-05,
  "Vapor_Pressure_Constant_E": 2.0,
  "Vapor_Pressure_TMAX": 304.21,
  "Vapor_Pressure_TMIN": 216.4,
  "Vapor_Thermal_Conductivity_Const_A": 5.804,
  "Vapor_Thermal_Conductivity_Const_B": -0.44522,
  "Vapor_Thermal_Conductivity_Const_C": 794.13,
  "Vapor_Thermal_Conductivity_Const_D": 2139600.0,
  "Vapor_Thermal_Conductivity_Const_E": 0.0,
  "Vapor_Thermal_Conductivity_Tmax": 1500.0,
  "Vapor_Thermal_Conductivity_Tmin": 180.0,
  "Vapor_Viscosity_Const_A": 2.2464E-06,
  "Vapor_Viscosity_Const_B": 0.45495,
  "Vapor_Viscosity_Const_C": 292.64,
  "Vapor_Viscosity_Const_D": 1669.1,
  "Vapor_Viscosity_Const_E": 0.0,
  "Vapor_Viscosity_Tmax": 1900.0,
  "Vapor_Viscosity_Tmin": 170.0,
  "VaporizationEnthalpyEquation": "106",
  "VaporPressureEquation": "101",
  "VaporThermalConductivityEquation": "102",
  "VaporViscosityEquation": "102",
  "Z_Rackett": 0.270937,
  "Elements": {
    "C": 1.0,
    "O": 2.0
  },
  "MODFACGroups": {},
  "NISTMODFACGroups": {},
  "UNIFACGroups": {},
  "FullerDiffusionVolume": 26.9,
  "LennardJonesDiameter": 4.011624E-10,
  "LennardJonesEnergy": 187.9268,
  "Parachor": 0.0132,
  "Tag": "",
  "ExtraProperties": {},
  "COSTALD_SRK_Acentric_Factor": 0.231,
  "COSTALD_Characteristic_Volume": 0.104698,
  "IsSolid": false,
  "ChemSepFamily": 24
}