{
  "Acentric_Factor": 0.312521,
  "BO_BSW": 0.0,
  "BO_GOR": 0.0,
  "BO_OilVisc1": 0.0,
  "BO_OilVisc2": 0.0,
  "BO_OilViscTemp1": 0.0,
  "BO_OilViscTemp2": 0.0,
  "BO_PNA_A": 0.0,
  "BO_PNA_N": 0.0,
  "BO_PNA_P": 0.0,
  "BO_SGG": 0.0,
  "BO_SGO": 0.0,
  "CAS_Number": "",
  "Chao_Seader_Acentricity": 0.312521,
  "Chao_Seader_Liquid_Molar_Volume": 37.92,
  "Chao_Seader_Solubility_Parameter": 0.00512802362,
  "Charge": 0,
  "ChemicalStructure": "",
  "Comments": "",
  "CompCreatorStudyFile": "",
  "COSMODBName": null,
  "Critical_Compressibility": 0.149,
  "Critical_Pressure": 5810000.0,
  "Critical_Temperature": 588.0,
  "Critical_Volume": 0.125,
  "CurrentDB": "ChemSep",
  "Dipole_Moment": 4.72E-30,
  "Electrolyte_Cp0": 0.0,
  "Electrolyte_DelGF": 0.0,
  "Electrolyte_DelHF": 0.0,
  "EnthalpyOfFusionAtTf": 12.7,
  "Formula": "COOH-Ni",
  "HVap_A": 23195000.0,
  "HVap_B": 1.9091,
  "HVap_C": -5.0003,
  "HVap_D": 3.2641,
  "HVap_E": 0.0,
  "HVap_TMAX": 588.0,
  "HVap_TMIN": 250.0,
  "HydrationNumber": 0.0,
  "ID": 1251,
  "Ideal_Gas_Heat_Capacity_Const_A": 32000.0,
  "Ideal_Gas_Heat_Capacity_Const_B": -550.0,
  "Ideal_Gas_Heat_Capacity_Const_C": 11.48076,
  "Ideal_Gas_Heat_Capacity_Const_D": 0.0,
  "Ideal_Gas_Heat_Capacity_Const_E": 0.0,
  "IdealgasCpEquation": "16",
  "IG_Enthalpy_of_Formation_25C": -8552.37399974362,
  "IG_Entropy_of_Formation_25C": -2.0177718331251682,
  "IG_Gibbs_Energy_of_Formation_25C": -7950.7753276973517,
  "InChI": "",
  "Ion_CpAq_a": 0.0,
  "Ion_CpAq_b": 0.0,
  "Ion_CpAq_c": 0.0,
  "IsBlackOil": false,
  "IsCOOLPROPSupported": false,
  "IsFPROPSSupported": false,
  "IsHydratedSalt": false,
  "IsHYPO": 0,
  "IsIon": false,
  "IsModified": false,
  "IsPF": 0,
  "IsSalt": false,
  "Liquid_Density_Const_A": 1.938,
  "Liquid_Density_Const_B": 0.24225,
  "Liquid_Density_Const_C": 588.0,
  "Liquid_Density_Const_D": 0.24435,
  "Liquid_Density_Const_E": 0.0,
  "Liquid_Density_Tmax": 588.0,
  "Liquid_Density_Tmin": 281.45,
  "Liquid_Heat_Capacity_Const_A": 78060.0,
  "Liquid_Heat_Capacity_Const_B": 71.54,
  "Liquid_Heat_Capacity_Const_C": 0.0,
  "Liquid_Heat_Capacity_Const_D": 0.0,
  "Liquid_Heat_Capacity_Const_E": 0.0,
  "Liquid_Heat_Capacity_Tmax": 380.0,
  "Liquid_Heat_Capacity_Tmin": 281.45,
  "Liquid_Thermal_Conductivity_Const_A": 0.302,
  "Liquid_Thermal_Conductivity_Const_B": -0.000108,
  "Liquid_Thermal_Conductivity_Const_C": 0.0,
  "Liquid_Thermal_Conductivity_Const_D": 0.0,
  "Liquid_Thermal_Conductivity_Const_E": 0.0,
  "Liquid_Thermal_Conductivity_Tmax": 373.71,
  "Liquid_Thermal_Conductivity_Tmin": 281.45,
  "Liquid_Viscosity_Const_A": -48.529,
  "Liquid_Viscosity_Const_B": 3394.7,
  "Liquid_Viscosity_Const_C": 5.3903,
  "Liquid_Viscosity_Const_D": 0.0,
  "Liquid_Viscosity_Const_E": 0.0,
  "LiquidDensityEquation": "105",
  "LiquidHeatCapacityEquation": "100",
  "LiquidThermalConductivityEquation": "100",
  "LiquidViscosityEquation": "101",
  "Molar_Weight": 103.709,
  "MolarVolume_k1i": 0.0,
  "MolarVolume_k2i": 0.0,
  "MolarVolume_k3i": 0.0,
  "MolarVolume_v2i": 0.0,
  "MolarVolume_v3i": 0.0,
  "Name": "COOH-Ni",
  "NBP": null,
  "NegativeIon": "",
  "NegativeIonStoichCoeff": 0,
  "Normal_Boiling_Point": 373.71,
  "OriginalDB": "ChemSep",
  "PC_SAFT_epsilon_k": 0.0,
  "PC_SAFT_m": 0.0,
  "PC_SAFT_sigma": 0.0,
  "PF_MM": null,
  "PF_SG": null,
  "PF_Tv1": null,
  "PF_Tv2": null,
  "PF_v1": null,
  "PF_v2": null,
  "PF_vA": null,
  "PF_vB": null,
  "PF_Watson_K": null,
  "PositiveIon": "",
  "PositiveIonStoichCoeff": 0,
  "PR_Volume_Translation_Coefficient": 0.0,
  "SMILES": "O=CO",
  "Solid_Density_Const_A": 34.909,
  "Solid_Density_Const_B": -0.0098173,
  "Solid_Density_Const_C": 0.0,
  "Solid_Density_Const_D": 0.0,
  "Solid_Density_Const_E": 0.0,
  "Solid_Density_Tmax": 281.45,
  "Solid_Density_Tmin": 90.15,
  "Solid_Heat_Capacity_Const_A": -8581.8,
  "Solid_Heat_Capacity_Const_B": 674.22,
  "Solid_Heat_Capacity_Const_C": -2.9226,
  "Solid_Heat_Capacity_Const_D": 0.005159,
  "Solid_Heat_Capacity_Const_E": 0.0,
  "Solid_Heat_Capacity_Tmax": 274.97,
  "Solid_Heat_Capacity_Tmin": 22.43,
  "SolidDensityAtTs": 0.0,
  "SolidDensityEquation": "100",
  "SolidHeatCapacityEquation": "100",
  "SolidTs": 0.0,
  "SRK_Volume_Translation_Coefficient": 0.0,
  "StandardStateMolarVolume": 0.0,
  "StoichSum": 0,
  "Surface_Tension_Const_A": 0.057265,
  "Surface_Tension_Const_B": -2.8788E-05,
  "Surface_Tension_Const_C": -1.4411E-07,
  "Surface_Tension_Const_D": 4.6524E-11,
  "Surface_Tension_Const_E": 0.0,
  "Surface_Tension_Tmax": 588.0,
  "Surface_Tension_Tmin": 281.45,
  "SurfaceTensionEquation": "100",
  "TemperatureOfFusion": 281.55,
  "UNIQUAC_Q": 1.532,
  "UNIQUAC_R": 1.528,
  "Vapor_Pressure_Constant_A": 43.807,
  "Vapor_Pressure_Constant_B": -5131.0,
  "Vapor_Pressure_Constant_C": -3.1878,
  "Vapor_Pressure_Constant_D": 2.3782E-06,
  "Vapor_Pressure_Constant_E": 2.0,
  "Vapor_Pressure_TMAX": 588.0,
  "Vapor_Pressure_TMIN": 281.45,
  "Vapor_Thermal_Conductivity_Const_A": -0.8303,
  "Vapor_Thermal_Conductivity_Const_B": 0.0046141,
  "Vapor_Thermal_Conductivity_Const_C": -5.7466E-06,
  "Vapor_Thermal_Conductivity_Const_D": 0.0,
  "Vapor_Thermal_Conductivity_Const_E": 0.0,
  "Vapor_Thermal_Conductivity_Tmax": 470.0,
  "Vapor_Thermal_Conductivity_Tmin": 420.0,
  "Vapor_Viscosity_Const_A": 5.0702E-08,
  "Vapor_Viscosity_Const_B": 0.9114,
  "Vapor_Viscosity_Const_C": 0.0,
  "Vapor_Viscosity_Const_D": 0.0,
  "Vapor_Viscosity_Const_E": 0.0,
  "Vapor_Viscosity_Tmax": 1000.0,
  "Vapor_Viscosity_Tmin": 281.45,
  "VaporizationEnthalpyEquation": "106",
  "VaporPressureEquation": "101",
  "VaporThermalConductivityEquation": "100",
  "VaporViscosityEquation": "102",
  "Z_Rackett": 0.0,
  "Elements": {
    "C": 1.0,
    "H": 2.0,
    "O": 2.0
  },
  "MODFACGroups": {
    "43": 1
  },
  "NISTMODFACGroups": {
    "43": 1
  },
  "UNIFACGroups": {
    "44": 1
  },
  "FullerDiffusionVolume": 32.74,
  "LennardJonesDiameter": 0.0,
  "LennardJonesEnergy": 0.0,
  "Parachor": 0.0170305,
  "Tag": "",
  "ExtraProperties": {},
  "COSTALD_SRK_Acentric_Factor": 0.312521,
  "COSTALD_Characteristic_Volume": 0.0,
  "IsSolid": false,
  "ChemSepFamily": 50
}