{
  "Acentric_Factor": -0.215993,
  "BO_BSW": 0.0,
  "BO_GOR": 0.0,
  "BO_OilVisc1": 0.0,
  "BO_OilVisc2": 0.0,
  "BO_OilViscTemp1": 0.0,
  "BO_OilViscTemp2": 0.0,
  "BO_PNA_A": 0.0,
  "BO_PNA_N": 0.0,
  "BO_PNA_P": 0.0,
  "BO_SGG": 0.0,
  "BO_SGO": 0.0,
  "CAS_Number": "1333-74-0",
  "Chao_Seader_Acentricity": 0.0,
  "Chao_Seader_Liquid_Molar_Volume": 31.0,
  "Chao_Seader_Solubility_Parameter": 0.0015878183522500002,
  "Charge": 0,
  "ChemicalStructure": "",
  "Comments": "",
  "CompCreatorStudyFile": "",
  "COSMODBName": null,
  "Critical_Compressibility": 0.305,
  "Critical_Pressure": 1313000.0,
  "Critical_Temperature": 33.19,
  "Critical_Volume": 0.064147,
  "CurrentDB": "ChemSep",
  "Dipole_Moment": 0.0,
  "Electrolyte_Cp0": 0.0,
  "Electrolyte_DelGF": 0.0,
  "Electrolyte_DelHF": 0.0,
  "EnthalpyOfFusionAtTf": 0.1171,
  "Formula": "H2",
  "HVap_A": 1534700.0,
  "HVap_B": 3.214,
  "HVap_C": -8.4567,
  "HVap_D": 8.4646,
  "HVap_E": -2.8057,
  "HVap_TMAX": 32.62,
  "HVap_TMIN": 13.95,
  "HydrationNumber": 0.0,
  "ID": 902,
  "Ideal_Gas_Heat_Capacity_Const_A": 3994.325,
  "Ideal_Gas_Heat_Capacity_Const_B": -48.69006,
  "Ideal_Gas_Heat_Capacity_Const_C": 10.36209,
  "Ideal_Gas_Heat_Capacity_Const_D": -0.000340144,
  "Ideal_Gas_Heat_Capacity_Const_E": 1.960333E-07,
  "IdealgasCpEquation": "16",
  "IG_Enthalpy_of_Formation_25C": 0.0,
  "IG_Entropy_of_Formation_25C": 0.0,
  "IG_Gibbs_Energy_of_Formation_25C": 0.0,
  "InChI": "",
  "Ion_CpAq_a": 0.0,
  "Ion_CpAq_b": 0.0,
  "Ion_CpAq_c": 0.0,
  "IsBlackOil": false,
  "IsCOOLPROPSupported": true,
  "IsFPROPSSupported": false,
  "IsHydratedSalt": false,
  "IsHYPO": 0,
  "IsIon": false,
  "IsModified": false,
  "IsPF": 0,
  "IsSalt": false,
  "Liquid_Density_Const_A": 2.9613,
  "Liquid_Density_Const_B": 0.25981,
  "Liquid_Density_Const_C": 33.19,
  "Liquid_Density_Const_D": 0.19104,
  "Liquid_Density_Const_E": 0.0,
  "Liquid_Density_Tmax": 33.18,
  "Liquid_Density_Tmin": 13.84,
  "Liquid_Heat_Capacity_Const_A": 14510.0,
  "Liquid_Heat_Capacity_Const_B": -1191.1,
  "Liquid_Heat_Capacity_Const_C": 156.51,
  "Liquid_Heat_Capacity_Const_D": -6.1773,
  "Liquid_Heat_Capacity_Const_E": 0.087907,
  "Liquid_Heat_Capacity_Tmax": 32.0,
  "Liquid_Heat_Capacity_Tmin": 13.84,
  "Liquid_Thermal_Conductivity_Const_A": -0.34238,
  "Liquid_Thermal_Conductivity_Const_B": -4.3002,
  "Liquid_Thermal_Conductivity_Const_C": -0.53814,
  "Liquid_Thermal_Conductivity_Const_D": 0.0011639,
  "Liquid_Thermal_Conductivity_Const_E": -0.00021792,
  "Liquid_Thermal_Conductivity_Tmax": 31.0,
  "Liquid_Thermal_Conductivity_Tmin": 13.84,
  "Liquid_Viscosity_Const_A": -32.531,
  "Liquid_Viscosity_Const_B": 97.304,
  "Liquid_Viscosity_Const_C": 5.9178,
  "Liquid_Viscosity_Const_D": -0.0031563,
  "Liquid_Viscosity_Const_E": 2.0,
  "LiquidDensityEquation": "105",
  "LiquidHeatCapacityEquation": "16",
  "LiquidThermalConductivityEquation": "16",
  "LiquidViscosityEquation": "101",
  "Molar_Weight": 2.01588,
  "MolarVolume_k1i": 0.0,
  "MolarVolume_k2i": 0.0,
  "MolarVolume_k3i": 0.0,
  "MolarVolume_v2i": 0.0,
  "MolarVolume_v3i": 0.0,
  "Name": "Hydrogen",
  "NBP": null,
  "NegativeIon": "",
  "NegativeIonStoichCoeff": 0,
  "Normal_Boiling_Point": 20.39,
  "OriginalDB": "ChemSep",
  "PC_SAFT_epsilon_k": 0.0,
  "PC_SAFT_m": 0.0,
  "PC_SAFT_sigma": 0.0,
  "PF_MM": null,
  "PF_SG": null,
  "PF_Tv1": null,
  "PF_Tv2": null,
  "PF_v1": null,
  "PF_v2": null,
  "PF_vA": null,
  "PF_vB": null,
  "PF_Watson_K": null,
  "PositiveIon": "",
  "PositiveIonStoichCoeff": 0,
  "PR_Volume_Translation_Coefficient": 0.0,
  "SMILES": "[H][H]",
  "Solid_Density_Const_A": 0.0,
  "Solid_Density_Const_B": 0.0,
  "Solid_Density_Const_C": 0.0,
  "Solid_Density_Const_D": 0.0,
  "Solid_Density_Const_E": 0.0,
  "Solid_Density_Tmax": 0.0,
  "Solid_Density_Tmin": 0.0,
  "Solid_Heat_Capacity_Const_A": 5730.0,
  "Solid_Heat_Capacity_Const_B": -1.3847E-11,
  "Solid_Heat_Capacity_Const_C": 1.1605E-12,
  "Solid_Heat_Capacity_Const_D": -1.2321E-13,
  "Solid_Heat_Capacity_Const_E": 4.114E-15,
  "Solid_Heat_Capacity_Tmax": 23.45,
  "Solid_Heat_Capacity_Tmin": 13.95,
  "SolidDensityAtTs": 0.0,
  "SolidDensityEquation": "",
  "SolidHeatCapacityEquation": "100",
  "SolidTs": 0.0,
  "SRK_Volume_Translation_Coefficient": 0.0,
  "StandardStateMolarVolume": 0.0,
  "StoichSum": 0,
  "Surface_Tension_Const_A": -0.003232,
  "Surface_Tension_Const_B": 1.9865,
  "Surface_Tension_Const_C": -5.0915,
  "Surface_Tension_Const_D": -0.00046122,
  "Surface_Tension_Const_E": -0.00062971,
  "Surface_Tension_Tmax": 32.18,
  "Surface_Tension_Tmin": 13.95,
  "SurfaceTensionEquation": "16",
  "TemperatureOfFusion": 13.95,
  "UNIQUAC_Q": 0.5516,
  "UNIQUAC_R": 0.4092,
  "Vapor_Pressure_Constant_A": 13.05,
  "Vapor_Pressure_Constant_B": -97.534,
  "Vapor_Pressure_Constant_C": 1.0355,
  "Vapor_Pressure_Constant_D": 0.00031816,
  "Vapor_Pressure_Constant_E": 2.0,
  "Vapor_Pressure_TMAX": 33.19,
  "Vapor_Pressure_TMIN": 13.08,
  "Vapor_Thermal_Conductivity_Const_A": 0.0026851,
  "Vapor_Thermal_Conductivity_Const_B": 0.74366,
  "Vapor_Thermal_Conductivity_Const_C": 13.289,
  "Vapor_Thermal_Conductivity_Const_D": -31.305,
  "Vapor_Thermal_Conductivity_Const_E": 0.0,
  "Vapor_Thermal_Conductivity_Tmax": 1600.0,
  "Vapor_Thermal_Conductivity_Tmin": 10.0,
  "Vapor_Viscosity_Const_A": 1.7916E-07,
  "Vapor_Viscosity_Const_B": 0.68557,
  "Vapor_Viscosity_Const_C": -0.51413,
  "Vapor_Viscosity_Const_D": 132.61,
  "Vapor_Viscosity_Const_E": 0.0,
  "Vapor_Viscosity_Tmax": 2000.0,
  "Vapor_Viscosity_Tmin": 13.95,
  "VaporizationEnthalpyEquation": "106",
  "VaporPressureEquation": "101",
  "VaporThermalConductivityEquation": "102",
  "VaporViscosityEquation": "102",
  "Z_Rackett": 0.3139,
  "Elements": {
    "H": 2.0
  },
  "MODFACGroups": {},
  "NISTMODFACGroups": {},
  "UNIFACGroups": {},
  "FullerDiffusionVolume": 6.12,
  "LennardJonesDiameter": 3.105589E-10,
  "LennardJonesEnergy": 30.15782,
  "Parachor": 0.0061,
  "Tag": "",
  "ExtraProperties": {},
  "COSTALD_SRK_Acentric_Factor": -0.2324,
  "COSTALD_Characteristic_Volume": 0.06424,
  "IsSolid": false,
  "ChemSepFamily": 74
}