{
  "Acentric_Factor": 0.281846,
  "BO_BSW": 0.0,
  "BO_GOR": 0.0,
  "BO_OilVisc1": 0.0,
  "BO_OilVisc2": 0.0,
  "BO_OilViscTemp1": 0.0,
  "BO_OilViscTemp2": 0.0,
  "BO_PNA_A": 0.0,
  "BO_PNA_N": 0.0,
  "BO_PNA_P": 0.0,
  "BO_SGG": 0.0,
  "BO_SGO": 0.0,
  "CAS_Number": "",
  "Chao_Seader_Acentricity": 0.253,
  "Chao_Seader_Liquid_Molar_Volume": 36.9129,
  "Chao_Seader_Solubility_Parameter": 0.0056904581808000006,
  "Charge": 0,
  "ChemicalStructure": "",
  "Comments": "",
  "CompCreatorStudyFile": "",
  "COSMODBName": null,
  "Critical_Compressibility": 0.223,
  "Critical_Pressure": 6590000.0,
  "Critical_Temperature": 408.0,
  "Critical_Volume": 0.115,
  "CurrentDB": "ChemSep",
  "Dipole_Moment": 7.77E-30,
  "Electrolyte_Cp0": 0.0,
  "Electrolyte_DelGF": 0.0,
  "Electrolyte_DelHF": 0.0,
  "EnthalpyOfFusionAtTf": 7.05,
  "Formula": "HCO-Ni",
  "HVap_A": 30902000.0,
  "HVap_B": 0.29722,
  "HVap_C": -0.051281,
  "HVap_D": 0.13234,
  "HVap_E": -0.080686,
  "HVap_TMAX": 396.06,
  "HVap_TMIN": 181.15,
  "HydrationNumber": 0.0,
  "ID": 1001,
  "Ideal_Gas_Heat_Capacity_Const_A": 33216.06,
  "Ideal_Gas_Heat_Capacity_Const_B": -1212.62,
  "Ideal_Gas_Heat_Capacity_Const_C": 11.96032,
  "Ideal_Gas_Heat_Capacity_Const_D": -0.000635943,
  "Ideal_Gas_Heat_Capacity_Const_E": 1.549232E-07,
  "IdealgasCpEquation": "16",
  "IG_Enthalpy_of_Formation_25C": -3616.8677924917019,
  "IG_Entropy_of_Formation_25C": -0.67022287392728486,
  "IG_Gibbs_Energy_of_Formation_25C": -3417.040842630282,
  "InChI": "",
  "Ion_CpAq_a": 0.0,
  "Ion_CpAq_b": 0.0,
  "Ion_CpAq_c": 0.0,
  "IsBlackOil": false,
  "IsCOOLPROPSupported": false,
  "IsFPROPSSupported": false,
  "IsHydratedSalt": false,
  "IsHYPO": 0,
  "IsIon": false,
  "IsModified": false,
  "IsPF": 0,
  "IsSalt": false,
  "Liquid_Density_Const_A": 1.9413,
  "Liquid_Density_Const_B": 0.22308,
  "Liquid_Density_Const_C": 408.0,
  "Liquid_Density_Const_D": 0.28569,
  "Liquid_Density_Const_E": 0.0,
  "Liquid_Density_Tmax": 396.06,
  "Liquid_Density_Tmin": 181.15,
  "Liquid_Heat_Capacity_Const_A": 62716.0,
  "Liquid_Heat_Capacity_Const_B": -69.453,
  "Liquid_Heat_Capacity_Const_C": 3.2871,
  "Liquid_Heat_Capacity_Const_D": 0.047782,
  "Liquid_Heat_Capacity_Const_E": -0.0001008,
  "Liquid_Heat_Capacity_Tmax": 304.0,
  "Liquid_Heat_Capacity_Tmin": 204.0,
  "Liquid_Thermal_Conductivity_Const_A": 0.10999,
  "Liquid_Thermal_Conductivity_Const_B": -161.62,
  "Liquid_Thermal_Conductivity_Const_C": 0.83463,
  "Liquid_Thermal_Conductivity_Const_D": -0.01142,
  "Liquid_Thermal_Conductivity_Const_E": 6.0772E-06,
  "Liquid_Thermal_Conductivity_Tmax": 234.0,
  "Liquid_Thermal_Conductivity_Tmin": 204.0,
  "Liquid_Viscosity_Const_A": -11.303,
  "Liquid_Viscosity_Const_B": 753.06,
  "Liquid_Viscosity_Const_C": -0.013733,
  "Liquid_Viscosity_Const_D": -4.6837E-08,
  "Liquid_Viscosity_Const_E": 2.0,
  "LiquidDensityEquation": "105",
  "LiquidHeatCapacityEquation": "16",
  "LiquidThermalConductivityEquation": "16",
  "LiquidViscosityEquation": "101",
  "Molar_Weight": 87.718,
  "MolarVolume_k1i": 0.0,
  "MolarVolume_k2i": 0.0,
  "MolarVolume_k3i": 0.0,
  "MolarVolume_v2i": 0.0,
  "MolarVolume_v3i": 0.0,
  "Name": "HCO-Ni",
  "NBP": null,
  "NegativeIon": "",
  "NegativeIonStoichCoeff": 0,
  "Normal_Boiling_Point": 254.05,
  "OriginalDB": "ChemSep",
  "PC_SAFT_epsilon_k": 0.0,
  "PC_SAFT_m": 0.0,
  "PC_SAFT_sigma": 0.0,
  "PF_MM": null,
  "PF_SG": null,
  "PF_Tv1": null,
  "PF_Tv2": null,
  "PF_v1": null,
  "PF_v2": null,
  "PF_vA": null,
  "PF_vB": null,
  "PF_Watson_K": null,
  "PositiveIon": "",
  "PositiveIonStoichCoeff": 0,
  "PR_Volume_Translation_Coefficient": 0.0,
  "SMILES": "C=O",
  "Solid_Density_Const_A": 39.262,
  "Solid_Density_Const_B": -0.024084,
  "Solid_Density_Const_C": 0.0,
  "Solid_Density_Const_D": 0.0,
  "Solid_Density_Const_E": 0.0,
  "Solid_Density_Tmax": 181.15,
  "Solid_Density_Tmin": 72.46,
  "Solid_Heat_Capacity_Const_A": 39430.0,
  "Solid_Heat_Capacity_Const_B": 0.0,
  "Solid_Heat_Capacity_Const_C": 0.0,
  "Solid_Heat_Capacity_Const_D": 0.0,
  "Solid_Heat_Capacity_Const_E": 0.0,
  "Solid_Heat_Capacity_Tmax": 0.0,
  "Solid_Heat_Capacity_Tmin": 0.0,
  "SolidDensityAtTs": 0.0,
  "SolidDensityEquation": "2",
  "SolidHeatCapacityEquation": "1",
  "SolidTs": 0.0,
  "SRK_Volume_Translation_Coefficient": 0.0,
  "StandardStateMolarVolume": 0.0,
  "StoichSum": 0,
  "Surface_Tension_Const_A": -0.016101,
  "Surface_Tension_Const_B": 136.53,
  "Surface_Tension_Const_C": -3.7004,
  "Surface_Tension_Const_D": 0.0067657,
  "Surface_Tension_Const_E": -2.1523E-05,
  "Surface_Tension_Tmax": 396.06,
  "Surface_Tension_Tmin": 181.15,
  "SurfaceTensionEquation": "16",
  "TemperatureOfFusion": 181.15,
  "UNIQUAC_Q": 0.78,
  "UNIQUAC_R": 0.9183,
  "Vapor_Pressure_Constant_A": 62.07923,
  "Vapor_Pressure_Constant_B": -4207.675,
  "Vapor_Pressure_Constant_C": -6.202287,
  "Vapor_Pressure_Constant_D": 5.521233E-06,
  "Vapor_Pressure_Constant_E": 2.0,
  "Vapor_Pressure_TMAX": 408.0,
  "Vapor_Pressure_TMIN": 163.7,
  "Vapor_Thermal_Conductivity_Const_A": 44.841,
  "Vapor_Thermal_Conductivity_Const_B": -0.71285,
  "Vapor_Thermal_Conductivity_Const_C": -3466.2,
  "Vapor_Thermal_Conductivity_Const_D": 5262100.0,
  "Vapor_Thermal_Conductivity_Const_E": 0.0,
  "Vapor_Thermal_Conductivity_Tmax": 994.05,
  "Vapor_Thermal_Conductivity_Tmin": 181.15,
  "Vapor_Viscosity_Const_A": 8.1997E-07,
  "Vapor_Viscosity_Const_B": 0.57256,
  "Vapor_Viscosity_Const_C": 258.17,
  "Vapor_Viscosity_Const_D": -5091.0,
  "Vapor_Viscosity_Const_E": 0.0,
  "Vapor_Viscosity_Tmax": 1000.0,
  "Vapor_Viscosity_Tmin": 181.15,
  "VaporizationEnthalpyEquation": "106",
  "VaporPressureEquation": "101",
  "VaporThermalConductivityEquation": "102",
  "VaporViscosityEquation": "102",
  "Z_Rackett": 0.0,
  "Elements": {
    "C": 1.0,
    "H": 2.0,
    "O": 1.0
  },
  "MODFACGroups": {
    "25": 1
  },
  "NISTMODFACGroups": {
    "25": 1
  },
  "UNIFACGroups": {
    "26": 1
  },
  "FullerDiffusionVolume": 26.63,
  "LennardJonesDiameter": 5.493448E-10,
  "LennardJonesEnergy": 120.0801,
  "Parachor": 0.0168,
  "Tag": "",
  "ExtraProperties": {},
  "COSTALD_SRK_Acentric_Factor": 0.26559,
  "COSTALD_Characteristic_Volume": 0.10819,
  "IsSolid": false,
  "ChemSepFamily": 25
}