{
  "Acentric_Factor": 0.022,
  "BO_BSW": 0.0,
  "BO_GOR": 0.0,
  "BO_OilVisc1": 0.0,
  "BO_OilVisc2": 0.0,
  "BO_OilViscTemp1": 0.0,
  "BO_OilViscTemp2": 0.0,
  "BO_PNA_A": 0.0,
  "BO_PNA_N": 0.0,
  "BO_PNA_P": 0.0,
  "BO_SGG": 0.0,
  "BO_SGO": 0.0,
  "CAS_Number": "",
  "Chao_Seader_Acentricity": 0.019,
  "Chao_Seader_Liquid_Molar_Volume": 28.022499999999997,
  "Chao_Seader_Solubility_Parameter": 0.00195422125278,
  "Charge": 0,
  "ChemicalStructure": "",
  "Comments": "",
  "CompCreatorStudyFile": "",
  "COSMODBName": null,
  "Critical_Compressibility": 0.288,
  "Critical_Pressure": 5043000.0,
  "Critical_Temperature": 154.58,
  "Critical_Volume": 0.07337,
  "CurrentDB": "ChemSep",
  "Dipole_Moment": 0.0,
  "Electrolyte_Cp0": 0.0,
  "Electrolyte_DelGF": 0.0,
  "Electrolyte_DelHF": 0.0,
  "EnthalpyOfFusionAtTf": 0.444,
  "Formula": "O-Ni",
  "HVap_A": 10672000.0,
  "HVap_B": 1.5661,
  "HVap_C": -3.4356,
  "HVap_D": 3.5416,
  "HVap_E": -1.2718,
  "HVap_TMAX": 154.58,
  "HVap_TMIN": 54.36,
  "HydrationNumber": 0.0,
  "ID": 901,
  "Ideal_Gas_Heat_Capacity_Const_A": 29061.62,
  "Ideal_Gas_Heat_Capacity_Const_B": -1470.897,
  "Ideal_Gas_Heat_Capacity_Const_C": 11.10778,
  "Ideal_Gas_Heat_Capacity_Const_D": -0.00128484,
  "Ideal_Gas_Heat_Capacity_Const_E": 3.183122E-07,
  "IdealgasCpEquation": "16",
  "IG_Enthalpy_of_Formation_25C": 0.0,
  "IG_Entropy_of_Formation_25C": 0.0,
  "IG_Gibbs_Energy_of_Formation_25C": 0.0,
  "InChI": "",
  "Ion_CpAq_a": 0.0,
  "Ion_CpAq_b": 0.0,
  "Ion_CpAq_c": 0.0,
  "IsBlackOil": false,
  "IsCOOLPROPSupported": true,
  "IsFPROPSSupported": false,
  "IsHydratedSalt": false,
  "IsHYPO": 0,
  "IsIon": false,
  "IsModified": false,
  "IsPF": 0,
  "IsSalt": false,
  "Liquid_Density_Const_A": 2.6097,
  "Liquid_Density_Const_B": 0.23614,
  "Liquid_Density_Const_C": 154.78,
  "Liquid_Density_Const_D": 0.23695,
  "Liquid_Density_Const_E": 0.0,
  "Liquid_Density_Tmax": 154.77,
  "Liquid_Density_Tmin": 54.35,
  "Liquid_Heat_Capacity_Const_A": 53393.0,
  "Liquid_Heat_Capacity_Const_B": -1966.4,
  "Liquid_Heat_Capacity_Const_C": 48.21,
  "Liquid_Heat_Capacity_Const_D": -0.31631,
  "Liquid_Heat_Capacity_Const_E": 0.0010466,
  "Liquid_Heat_Capacity_Tmax": 145.0,
  "Liquid_Heat_Capacity_Tmin": 54.36,
  "Liquid_Thermal_Conductivity_Const_A": -0.19654,
  "Liquid_Thermal_Conductivity_Const_B": -10.535,
  "Liquid_Thermal_Conductivity_Const_C": -0.46717,
  "Liquid_Thermal_Conductivity_Const_D": -0.0052064,
  "Liquid_Thermal_Conductivity_Const_E": -3.3418E-07,
  "Liquid_Thermal_Conductivity_Tmax": 150.0,
  "Liquid_Thermal_Conductivity_Tmin": 50.0,
  "Liquid_Viscosity_Const_A": -5.2319,
  "Liquid_Viscosity_Const_B": 116.13,
  "Liquid_Viscosity_Const_C": -1.0315,
  "Liquid_Viscosity_Const_D": 3.4376E-06,
  "Liquid_Viscosity_Const_E": 2.0,
  "LiquidDensityEquation": "105",
  "LiquidHeatCapacityEquation": "16",
  "LiquidThermalConductivityEquation": "16",
  "LiquidViscosityEquation": "101",
  "Molar_Weight": 74.693,
  "MolarVolume_k1i": 0.0,
  "MolarVolume_k2i": 0.0,
  "MolarVolume_k3i": 0.0,
  "MolarVolume_v2i": 0.0,
  "MolarVolume_v3i": 0.0,
  "Name": "O-Ni",
  "NBP": null,
  "NegativeIon": "",
  "NegativeIonStoichCoeff": 0,
  "Normal_Boiling_Point": 90.17,
  "OriginalDB": "ChemSep",
  "PC_SAFT_epsilon_k": 0.0,
  "PC_SAFT_m": 0.0,
  "PC_SAFT_sigma": 0.0,
  "PF_MM": null,
  "PF_SG": null,
  "PF_Tv1": null,
  "PF_Tv2": null,
  "PF_v1": null,
  "PF_v2": null,
  "PF_vA": null,
  "PF_vB": null,
  "PF_Watson_K": null,
  "PositiveIon": "",
  "PositiveIonStoichCoeff": 0,
  "PR_Volume_Translation_Coefficient": 0.0,
  "SMILES": "O=O",
  "Solid_Density_Const_A": 44.552,
  "Solid_Density_Const_B": -4.4857E-08,
  "Solid_Density_Const_C": 0.0,
  "Solid_Density_Const_D": 0.0,
  "Solid_Density_Const_E": 0.0,
  "Solid_Density_Tmax": 30.15,
  "Solid_Density_Tmin": 20.65,
  "Solid_Heat_Capacity_Const_A": -15381.0,
  "Solid_Heat_Capacity_Const_B": 1601.9,
  "Solid_Heat_Capacity_Const_C": -10.968,
  "Solid_Heat_Capacity_Const_D": 0.24187,
  "Solid_Heat_Capacity_Const_E": -0.0020734,
  "Solid_Heat_Capacity_Tmax": 43.78,
  "Solid_Heat_Capacity_Tmin": 13.46,
  "SolidDensityAtTs": 0.0,
  "SolidDensityEquation": "2",
  "SolidHeatCapacityEquation": "100",
  "SolidTs": 0.0,
  "SRK_Volume_Translation_Coefficient": 0.0,
  "StandardStateMolarVolume": 0.0,
  "StoichSum": 0,
  "Surface_Tension_Const_A": -0.0062662,
  "Surface_Tension_Const_B": 17.53,
  "Surface_Tension_Const_C": -3.9173,
  "Surface_Tension_Const_D": 0.0058473,
  "Surface_Tension_Const_E": -9.1613E-05,
  "Surface_Tension_Tmax": 154.58,
  "Surface_Tension_Tmin": 54.35,
  "SurfaceTensionEquation": "16",
  "TemperatureOfFusion": 54.361,
  "UNIQUAC_Q": 0.94,
  "UNIQUAC_R": 0.857,
  "Vapor_Pressure_Constant_A": 40.55487,
  "Vapor_Pressure_Constant_B": -1120.543,
  "Vapor_Pressure_Constant_C": -3.776114,
  "Vapor_Pressure_Constant_D": 4.85344E-05,
  "Vapor_Pressure_Constant_E": 2.0,
  "Vapor_Pressure_TMAX": 154.8,
  "Vapor_Pressure_TMIN": 54.35,
  "Vapor_Thermal_Conductivity_Const_A": 0.0004508,
  "Vapor_Thermal_Conductivity_Const_B": 0.74544,
  "Vapor_Thermal_Conductivity_Const_C": 58.278,
  "Vapor_Thermal_Conductivity_Const_D": -562.62,
  "Vapor_Thermal_Conductivity_Const_E": 0.0,
  "Vapor_Thermal_Conductivity_Tmax": 2000.0,
  "Vapor_Thermal_Conductivity_Tmin": 60.0,
  "Vapor_Viscosity_Const_A": 8.0134E-07,
  "Vapor_Viscosity_Const_B": 0.60321,
  "Vapor_Viscosity_Const_C": 56.09,
  "Vapor_Viscosity_Const_D": 1584.9,
  "Vapor_Viscosity_Const_E": 0.0,
  "Vapor_Viscosity_Tmax": 1950.0,
  "Vapor_Viscosity_Tmin": 54.35,
  "VaporizationEnthalpyEquation": "106",
  "VaporPressureEquation": "101",
  "VaporThermalConductivityEquation": "102",
  "VaporViscosityEquation": "102",
  "Z_Rackett": 0.2908,
  "Elements": {
    "O": 2.0
  },
  "MODFACGroups": {},
  "NISTMODFACGroups": {},
  "UNIFACGroups": {},
  "FullerDiffusionVolume": 16.3,
  "LennardJonesDiameter": 3.479206E-10,
  "LennardJonesEnergy": 114.2561,
  "Parachor": 0.00953,
  "Tag": "",
  "ExtraProperties": {},
  "COSTALD_SRK_Acentric_Factor": 0.0297998,
  "COSTALD_Characteristic_Volume": 0.0737899,
  "IsSolid": false,
  "ChemSepFamily": 74
}